<?xml version="1.0" encoding="UTF-8"?>

<!-- generated on 2026-03-27T07:27:16.592131+05:30 by Eclipse SUMO GUI 1.26.0
<sumoConfiguration xmlns:xsi="http://www.w3.org/2001/XMLSchema-instance" xsi:noNamespaceSchemaLocation="http://sumo.dlr.de/xsd/sumoConfiguration.xsd">

    <input>
        <net-file value="osm.net.xml"/>
        <route-files value="routes_cars.rou.xml,routes_bikes.rou.xml,routes_buses.rou.xml,routes_ambulance.rou.xml,routes_firebrigade.rou.xml"/>
        <additional-files value="vtypes.add.xml"/>
    </input>

    <output>
        <summary-output value="summary.xml"/>
        <tripinfo-output value="tripinfo.xml"/>
    </output>

    <time>
        <begin value="0"/>
        <end value="3600"/>
        <step-length value="0.1"/>
    </time>

    <processing>
        <ignore-route-errors value="true"/>
        <collision.action value="warn"/>
        <time-to-teleport value="300"/>
    </processing>

    <traci_server>
        <remote-port value="54911"/>
    </traci_server>

    <gui_only>
        <gui-settings-file value="viewsettings.xml"/>
        <quit-on-end value="true"/>
        <start value="true"/>
        <delay value="50"/>
    </gui_only>

</sumoConfiguration>
-->

<tripinfos xmlns:xsi="http://www.w3.org/2001/XMLSchema-instance" xsi:noNamespaceSchemaLocation="http://sumo.dlr.de/xsd/tripinfo_file.xsd">
    <tripinfo id="car_21" depart="10.50" departLane="-423559880#1_0" departPos="5.10" departSpeed="0.00" departDelay="0.00" arrival="51.60" arrivalLane="-717531847#3_0" arrivalPos="49.05" arrivalSpeed="12.31" duration="41.10" routeLength="414.11" waitingTime="0.00" waitingCount="0" stopTime="0.00" timeLoss="5.87" rerouteNo="0" devices="tripinfo_car_21" vType="DEFAULT_VEHTYPE" speedFactor="0.89" vaporized=""/>
    <tripinfo id="car_52" depart="26.00" departLane="-686696454#2_0" departPos="5.10" departSpeed="0.00" departDelay="0.00" arrival="67.70" arrivalLane="24584377#6_0" arrivalPos="49.38" arrivalSpeed="17.03" duration="41.70" routeLength="615.47" waitingTime="0.00" waitingCount="0" stopTime="0.00" timeLoss="13.33" rerouteNo="0" devices="tripinfo_car_52" vType="DEFAULT_VEHTYPE" speedFactor="1.10" vaporized=""/>
    <tripinfo id="car_130" depart="65.00" departLane="712992080#6_0" departPos="5.10" departSpeed="0.00" departDelay="0.00" arrival="74.30" arrivalLane="712992080#7_0" arrivalPos="29.63" arrivalSpeed="18.37" duration="9.30" routeLength="88.44" waitingTime="0.00" waitingCount="0" stopTime="0.00" timeLoss="6.45" rerouteNo="0" devices="tripinfo_car_130" vType="DEFAULT_VEHTYPE" speedFactor="1.12" vaporized=""/>
    <tripinfo id="car_127" depart="63.50" departLane="998790358#9_0" departPos="5.10" departSpeed="0.00" departDelay="0.00" arrival="76.50" arrivalLane="998790358#17_0" arrivalPos="2.74" arrivalSpeed="25.37" duration="13.00" routeLength="166.47" waitingTime="0.00" waitingCount="0" stopTime="0.00" timeLoss="7.74" rerouteNo="0" devices="tripinfo_car_127" vType="DEFAULT_VEHTYPE" speedFactor="1.15" vaporized=""/>
    <tripinfo id="car_29" depart="14.50" departLane="-24583489#3_0" departPos="5.10" departSpeed="0.00" departDelay="0.00" arrival="80.70" arrivalLane="111695525#0_0" arrivalPos="92.54" arrivalSpeed="22.86" duration="66.20" routeLength="843.56" waitingTime="2.00" waitingCount="2" stopTime="0.00" timeLoss="33.43" rerouteNo="0" devices="tripinfo_car_29" vType="DEFAULT_VEHTYPE" speedFactor="1.15" vaporized=""/>
    <tripinfo id="car_89" depart="44.50" departLane="1122228221_0" departPos="5.10" departSpeed="0.00" departDelay="0.00" arrival="95.60" arrivalLane="1287398725#4_1" arrivalPos="66.00" arrivalSpeed="14.10" duration="51.10" routeLength="550.92" waitingTime="0.00" waitingCount="0" stopTime="0.00" timeLoss="9.60" rerouteNo="0" devices="tripinfo_car_89" vType="DEFAULT_VEHTYPE" speedFactor="1.02" vaporized=""/>
    <tripinfo id="car_59" depart="29.50" departLane="24583335#2_0" departPos="5.10" departSpeed="0.00" departDelay="0.00" arrival="102.30" arrivalLane="-24583495#10_0" arrivalPos="4.96" arrivalSpeed="14.96" duration="72.80" routeLength="867.18" waitingTime="16.60" waitingCount="1" stopTime="0.00" timeLoss="41.29" rerouteNo="0" devices="tripinfo_car_59" vType="DEFAULT_VEHTYPE" speedFactor="1.08" vaporized=""/>
    <tripinfo id="car_83" depart="41.50" departLane="-553588769#0_0" departPos="5.10" departSpeed="0.00" departDelay="0.00" arrival="109.10" arrivalLane="291266017#3_0" arrivalPos="3.67" arrivalSpeed="8.61" duration="67.60" routeLength="667.66" waitingTime="0.20" waitingCount="1" stopTime="0.00" timeLoss="15.82" rerouteNo="0" devices="tripinfo_car_83" vType="DEFAULT_VEHTYPE" speedFactor="0.97" vaporized=""/>
    <tripinfo id="car_18" depart="9.00" departLane="686673952#3_0" departPos="5.10" departSpeed="0.00" departDelay="0.00" arrival="112.60" arrivalLane="24583495#3_0" arrivalPos="18.22" arrivalSpeed="14.02" duration="103.60" routeLength="1593.17" waitingTime="0.00" waitingCount="0" stopTime="0.00" timeLoss="30.99" rerouteNo="0" devices="tripinfo_car_18" vType="DEFAULT_VEHTYPE" speedFactor="1.02" vaporized=""/>
    <tripinfo id="car_69" depart="34.50" departLane="563791813_0" departPos="5.10" departSpeed="0.00" departDelay="0.00" arrival="114.50" arrivalLane="-24577118#11_0" arrivalPos="23.09" arrivalSpeed="10.22" duration="80.00" routeLength="1154.36" waitingTime="0.00" waitingCount="0" stopTime="0.00" timeLoss="14.88" rerouteNo="0" devices="tripinfo_car_69" vType="DEFAULT_VEHTYPE" speedFactor="1.02" vaporized=""/>
    <tripinfo id="car_129" depart="64.50" departLane="-686685083_0" departPos="5.10" departSpeed="0.00" departDelay="0.00" arrival="116.40" arrivalLane="779077038#2_0" arrivalPos="109.11" arrivalSpeed="11.29" duration="51.90" routeLength="524.43" waitingTime="0.00" waitingCount="0" stopTime="0.00" timeLoss="10.01" rerouteNo="0" devices="tripinfo_car_129" vType="DEFAULT_VEHTYPE" speedFactor="0.82" vaporized=""/>
    <tripinfo id="car_154" depart="77.00" departLane="596373338#8_0" departPos="5.10" departSpeed="0.00" departDelay="0.00" arrival="119.10" arrivalLane="709276133#3_0" arrivalPos="74.96" arrivalSpeed="29.67" duration="42.10" routeLength="729.54" waitingTime="0.00" waitingCount="0" stopTime="0.00" timeLoss="16.03" rerouteNo="0" devices="tripinfo_car_154" vType="DEFAULT_VEHTYPE" speedFactor="1.07" vaporized=""/>
    <tripinfo id="car_186" depart="93.00" departLane="553590482#1_0" departPos="5.10" departSpeed="0.00" departDelay="0.00" arrival="119.10" arrivalLane="291266017#9_0" arrivalPos="21.48" arrivalSpeed="12.41" duration="26.10" routeLength="212.44" waitingTime="0.00" waitingCount="0" stopTime="0.00" timeLoss="7.72" rerouteNo="0" devices="tripinfo_car_186" vType="DEFAULT_VEHTYPE" speedFactor="1.03" vaporized=""/>
    <tripinfo id="car_11" depart="5.50" departLane="-993539154#0_0" departPos="5.10" departSpeed="0.00" departDelay="0.00" arrival="125.50" arrivalLane="-24583584#2_0" arrivalPos="48.62" arrivalSpeed="15.47" duration="120.00" routeLength="1783.19" waitingTime="0.00" waitingCount="0" stopTime="0.00" timeLoss="30.30" rerouteNo="0" devices="tripinfo_car_11" vType="DEFAULT_VEHTYPE" speedFactor="1.12" vaporized=""/>
    <tripinfo id="car_15" depart="7.50" departLane="612750030#1_0" departPos="5.10" departSpeed="0.00" departDelay="0.00" arrival="127.00" arrivalLane="48964552#3_0" arrivalPos="74.40" arrivalSpeed="26.12" duration="119.50" routeLength="2080.26" waitingTime="7.20" waitingCount="1" stopTime="0.00" timeLoss="35.62" rerouteNo="0" devices="tripinfo_car_15" vType="DEFAULT_VEHTYPE" speedFactor="0.94" vaporized=""/>
    <tripinfo id="car_68" depart="34.00" departLane="-1122231674_0" departPos="5.10" departSpeed="0.00" departDelay="0.00" arrival="128.90" arrivalLane="563791811#4_0" arrivalPos="45.41" arrivalSpeed="28.32" duration="94.90" routeLength="1485.77" waitingTime="0.50" waitingCount="1" stopTime="0.00" timeLoss="31.37" rerouteNo="0" devices="tripinfo_car_68" vType="DEFAULT_VEHTYPE" speedFactor="1.02" vaporized=""/>
    <tripinfo id="car_60" depart="30.00" departLane="563679836#5_0" departPos="5.10" departSpeed="0.00" departDelay="0.00" arrival="130.80" arrivalLane="24563446#0_0" arrivalPos="21.33" arrivalSpeed="15.77" duration="100.80" routeLength="2153.70" waitingTime="0.00" waitingCount="0" stopTime="0.00" timeLoss="29.29" rerouteNo="0" devices="tripinfo_car_60" vType="DEFAULT_VEHTYPE" speedFactor="1.12" vaporized=""/>
    <tripinfo id="car_212" depart="106.00" departLane="142865883#7_0" departPos="5.10" departSpeed="0.00" departDelay="0.00" arrival="133.10" arrivalLane="-633143618_0" arrivalPos="24.76" arrivalSpeed="13.44" duration="27.10" routeLength="256.16" waitingTime="0.00" waitingCount="0" stopTime="0.00" timeLoss="5.86" rerouteNo="0" devices="tripinfo_car_212" vType="DEFAULT_VEHTYPE" speedFactor="0.97" vaporized=""/>
    <tripinfo id="car_206" depart="103.00" departLane="291266017#3_0" departPos="3.67" departSpeed="0.00" departDelay="0.00" arrival="133.60" arrivalLane="-553590474#4_0" arrivalPos="36.77" arrivalSpeed="12.10" duration="30.60" routeLength="255.45" waitingTime="0.00" waitingCount="0" stopTime="0.00" timeLoss="6.19" rerouteNo="0" devices="tripinfo_car_206" vType="DEFAULT_VEHTYPE" speedFactor="0.87" vaporized=""/>
    <tripinfo id="car_55" depart="27.50" departLane="712992074#13_0" departPos="5.10" departSpeed="0.00" departDelay="0.00" arrival="134.20" arrivalLane="-699609064_0" arrivalPos="21.34" arrivalSpeed="10.42" duration="106.70" routeLength="1790.86" waitingTime="0.00" waitingCount="0" stopTime="0.00" timeLoss="19.37" rerouteNo="0" devices="tripinfo_car_55" vType="DEFAULT_VEHTYPE" speedFactor="0.90" vaporized=""/>
    <tripinfo id="car_35" depart="17.50" departLane="-370672194#10_0" departPos="5.10" departSpeed="0.00" departDelay="0.00" arrival="134.40" arrivalLane="80499762#9_0" arrivalPos="144.81" arrivalSpeed="28.60" duration="116.90" routeLength="2323.16" waitingTime="0.00" waitingCount="0" stopTime="0.00" timeLoss="32.76" rerouteNo="0" devices="tripinfo_car_35" vType="DEFAULT_VEHTYPE" speedFactor="1.18" vaporized=""/>
    <tripinfo id="car_134" depart="67.00" departLane="24584385#2_0" departPos="5.10" departSpeed="0.00" departDelay="0.00" arrival="135.30" arrivalLane="-1060463406#1_0" arrivalPos="19.81" arrivalSpeed="12.61" duration="68.30" routeLength="1029.39" waitingTime="0.00" waitingCount="0" stopTime="0.00" timeLoss="18.48" rerouteNo="0" devices="tripinfo_car_134" vType="DEFAULT_VEHTYPE" speedFactor="0.96" vaporized=""/>
    <tripinfo id="car_27" depart="13.50" departLane="24584378#7_0" departPos="5.10" departSpeed="0.00" departDelay="0.00" arrival="136.00" arrivalLane="24583487#8_0" arrivalPos="1.07" arrivalSpeed="20.60" duration="122.50" routeLength="1891.62" waitingTime="0.00" waitingCount="0" stopTime="0.00" timeLoss="30.61" rerouteNo="0" devices="tripinfo_car_27" vType="DEFAULT_VEHTYPE" speedFactor="0.93" vaporized=""/>
    <tripinfo id="car_9" depart="4.50" departLane="615556515#0_0" departPos="5.10" departSpeed="0.00" departDelay="0.00" arrival="137.50" arrivalLane="-1060463404#0_0" arrivalPos="30.11" arrivalSpeed="12.79" duration="133.00" routeLength="2137.12" waitingTime="0.00" waitingCount="0" stopTime="0.00" timeLoss="30.55" rerouteNo="0" devices="tripinfo_car_9" vType="DEFAULT_VEHTYPE" speedFactor="1.03" vaporized=""/>
    <tripinfo id="car_31" depart="15.50" departLane="24577108#2_0" departPos="5.10" departSpeed="0.00" departDelay="0.00" arrival="139.80" arrivalLane="370672194#14_0" arrivalPos="0.32" arrivalSpeed="16.20" duration="124.30" routeLength="1723.16" waitingTime="0.50" waitingCount="1" stopTime="0.00" timeLoss="40.44" rerouteNo="0" devices="tripinfo_car_31" vType="DEFAULT_VEHTYPE" speedFactor="1.17" vaporized=""/>
    <tripinfo id="car_34" depart="17.00" departLane="-750482273#6_0" departPos="5.10" departSpeed="0.00" departDelay="0.00" arrival="139.80" arrivalLane="-700293880#0_0" arrivalPos="55.76" arrivalSpeed="13.41" duration="122.80" routeLength="1705.82" waitingTime="0.00" waitingCount="0" stopTime="0.00" timeLoss="24.35" rerouteNo="0" devices="tripinfo_car_34" vType="DEFAULT_VEHTYPE" speedFactor="0.97" vaporized=""/>
    <tripinfo id="car_104" depart="52.00" departLane="1072967424_0" departPos="5.10" departSpeed="0.00" departDelay="0.00" arrival="140.60" arrivalLane="997761552#1_0" arrivalPos="71.16" arrivalSpeed="26.39" duration="88.60" routeLength="1111.72" waitingTime="1.80" waitingCount="1" stopTime="0.00" timeLoss="27.75" rerouteNo="0" devices="tripinfo_car_104" vType="DEFAULT_VEHTYPE" speedFactor="0.95" vaporized=""/>
    <tripinfo id="car_204" depart="102.00" departLane="24583593#6_0" departPos="5.10" departSpeed="0.00" departDelay="0.00" arrival="143.40" arrivalLane="-998790358#7_1" arrivalPos="0.20" arrivalSpeed="22.96" duration="41.40" routeLength="450.00" waitingTime="0.00" waitingCount="0" stopTime="0.00" timeLoss="8.63" rerouteNo="0" devices="tripinfo_car_204" vType="DEFAULT_VEHTYPE" speedFactor="0.83" vaporized=""/>
    <tripinfo id="car_171" depart="85.50" departLane="-1074774615#2_0" departPos="5.10" departSpeed="0.00" departDelay="0.00" arrival="152.30" arrivalLane="-311994765#1_0" arrivalPos="155.74" arrivalSpeed="13.60" duration="66.80" routeLength="779.14" waitingTime="0.00" waitingCount="0" stopTime="0.00" timeLoss="12.60" rerouteNo="0" devices="tripinfo_car_171" vType="DEFAULT_VEHTYPE" speedFactor="0.98" vaporized=""/>
    <tripinfo id="bike_26" depart="78.00" departLane="-24583487#3_0" departPos="5.10" departSpeed="0.00" departDelay="0.00" arrival="154.90" arrivalLane="74851428#5-AddedOffRampEdge_0" arrivalPos="93.49" arrivalSpeed="18.72" duration="76.90" routeLength="677.28" waitingTime="26.60" waitingCount="1" stopTime="0.00" timeLoss="49.15" rerouteNo="0" devices="tripinfo_bike_26" vType="DEFAULT_VEHTYPE" speedFactor="0.98" vaporized=""/>
    <tripinfo id="car_37" depart="18.50" departLane="24584391#2_0" departPos="5.10" departSpeed="0.00" departDelay="0.00" arrival="156.10" arrivalLane="1122026496#1_0" arrivalPos="52.41" arrivalSpeed="12.45" duration="137.60" routeLength="1607.69" waitingTime="0.00" waitingCount="0" stopTime="0.00" timeLoss="30.22" rerouteNo="0" devices="tripinfo_car_37" vType="DEFAULT_VEHTYPE" speedFactor="0.90" vaporized=""/>
    <tripinfo id="car_76" depart="38.00" departLane="116046167#2_0" departPos="5.10" departSpeed="0.00" departDelay="0.00" arrival="156.50" arrivalLane="164786644#2_0" arrivalPos="6.62" arrivalSpeed="14.24" duration="118.50" routeLength="2069.98" waitingTime="0.00" waitingCount="0" stopTime="0.00" timeLoss="34.38" rerouteNo="0" devices="tripinfo_car_76" vType="DEFAULT_VEHTYPE" speedFactor="1.03" vaporized=""/>
    <tripinfo id="car_254" depart="127.00" departLane="-1122028503#1_0" departPos="5.10" departSpeed="0.00" departDelay="0.00" arrival="156.60" arrivalLane="111695524#7_0" arrivalPos="43.58" arrivalSpeed="13.90" duration="29.60" routeLength="331.39" waitingTime="0.00" waitingCount="0" stopTime="0.00" timeLoss="10.45" rerouteNo="0" devices="tripinfo_car_254" vType="DEFAULT_VEHTYPE" speedFactor="1.04" vaporized=""/>
    <tripinfo id="car_190" depart="95.00" departLane="44263461#1_0" departPos="5.10" departSpeed="0.00" departDelay="0.00" arrival="159.90" arrivalLane="-773816586#1_0" arrivalPos="61.87" arrivalSpeed="12.65" duration="64.90" routeLength="820.46" waitingTime="0.00" waitingCount="0" stopTime="0.00" timeLoss="9.17" rerouteNo="0" devices="tripinfo_car_190" vType="DEFAULT_VEHTYPE" speedFactor="0.92" vaporized=""/>
    <tripinfo id="car_79" depart="39.50" departLane="-423618455#3_0" departPos="5.10" departSpeed="0.00" departDelay="0.00" arrival="161.20" arrivalLane="-44263461#6_0" arrivalPos="30.42" arrivalSpeed="14.59" duration="121.70" routeLength="1495.82" waitingTime="0.00" waitingCount="0" stopTime="0.00" timeLoss="23.91" rerouteNo="0" devices="tripinfo_car_79" vType="DEFAULT_VEHTYPE" speedFactor="1.09" vaporized=""/>
    <tripinfo id="car_10" depart="5.00" departLane="612734124#1_0" departPos="5.10" departSpeed="0.00" departDelay="0.00" arrival="163.10" arrivalLane="371342951#1_0" arrivalPos="11.27" arrivalSpeed="14.28" duration="158.10" routeLength="2596.16" waitingTime="1.80" waitingCount="1" stopTime="0.00" timeLoss="40.27" rerouteNo="0" devices="tripinfo_car_10" vType="DEFAULT_VEHTYPE" speedFactor="1.05" vaporized=""/>
    <tripinfo id="car_96" depart="48.00" departLane="-577982260#2_0" departPos="2.77" departSpeed="0.00" departDelay="0.00" arrival="163.80" arrivalLane="760817632#1_0" arrivalPos="213.69" arrivalSpeed="29.35" duration="115.80" routeLength="2060.80" waitingTime="0.00" waitingCount="0" stopTime="0.00" timeLoss="33.46" rerouteNo="0" devices="tripinfo_car_96" vType="DEFAULT_VEHTYPE" speedFactor="1.06" vaporized=""/>
    <tripinfo id="car_141" depart="70.50" departLane="24583594#2_0" departPos="5.10" departSpeed="0.00" departDelay="0.00" arrival="165.30" arrivalLane="-700293874#2_0" arrivalPos="61.26" arrivalSpeed="13.13" duration="94.80" routeLength="1384.11" waitingTime="0.00" waitingCount="0" stopTime="0.00" timeLoss="19.83" rerouteNo="0" devices="tripinfo_car_141" vType="DEFAULT_VEHTYPE" speedFactor="0.95" vaporized=""/>
    <tripinfo id="bike_1" depart="3.00" departLane="-24583590#5_0" departPos="5.10" departSpeed="0.00" departDelay="0.00" arrival="166.30" arrivalLane="-24583487#8_1" arrivalPos="1.07" arrivalSpeed="21.34" duration="163.30" routeLength="2416.45" waitingTime="19.80" waitingCount="1" stopTime="0.00" timeLoss="59.03" rerouteNo="0" devices="tripinfo_bike_1" vType="DEFAULT_VEHTYPE" speedFactor="1.01" vaporized=""/>
    <tripinfo id="car_48" depart="24.00" departLane="998790358#17_0" departPos="2.74" departSpeed="0.00" departDelay="0.00" arrival="170.50" arrivalLane="23134680#0_0" arrivalPos="154.32" arrivalSpeed="23.65" duration="146.50" routeLength="2863.03" waitingTime="0.00" waitingCount="0" stopTime="0.00" timeLoss="21.88" rerouteNo="0" devices="tripinfo_car_48" vType="DEFAULT_VEHTYPE" speedFactor="0.85" vaporized=""/>
    <tripinfo id="car_24" depart="12.00" departLane="24583768#0_0" departPos="5.10" departSpeed="0.00" departDelay="0.00" arrival="171.70" arrivalLane="1074764284#0_0" arrivalPos="438.48" arrivalSpeed="12.73" duration="159.70" routeLength="2429.78" waitingTime="0.00" waitingCount="0" stopTime="0.00" timeLoss="27.39" rerouteNo="0" devices="tripinfo_car_24" vType="DEFAULT_VEHTYPE" speedFactor="0.92" vaporized=""/>
    <tripinfo id="car_41" depart="20.50" departLane="24577486#0_0" departPos="5.10" departSpeed="0.00" departDelay="0.00" arrival="174.10" arrivalLane="717907807#6_0" arrivalPos="22.36" arrivalSpeed="28.74" duration="153.60" routeLength="2773.34" waitingTime="5.20" waitingCount="1" stopTime="0.00" timeLoss="48.24" rerouteNo="0" devices="tripinfo_car_41" vType="DEFAULT_VEHTYPE" speedFactor="1.04" vaporized=""/>
    <tripinfo id="car_70" depart="35.00" departLane="1306148229#4_0" departPos="5.10" departSpeed="0.00" departDelay="0.00" arrival="174.20" arrivalLane="24577106#0_1" arrivalPos="26.32" arrivalSpeed="10.53" duration="139.20" routeLength="2326.44" waitingTime="1.90" waitingCount="1" stopTime="0.00" timeLoss="47.08" rerouteNo="0" devices="tripinfo_car_70" vType="DEFAULT_VEHTYPE" speedFactor="0.97" vaporized=""/>
    <tripinfo id="car_17" depart="8.50" departLane="1072967423#0_0" departPos="5.10" departSpeed="0.00" departDelay="0.00" arrival="174.40" arrivalLane="24577108#2_0" arrivalPos="25.02" arrivalSpeed="16.07" duration="165.90" routeLength="2696.42" waitingTime="0.00" waitingCount="0" stopTime="0.00" timeLoss="59.43" rerouteNo="0" devices="tripinfo_car_17" vType="DEFAULT_VEHTYPE" speedFactor="1.16" vaporized=""/>
    <tripinfo id="car_214" depart="107.00" departLane="562499724#3_0" departPos="5.10" departSpeed="0.00" departDelay="0.00" arrival="174.90" arrivalLane="570616026#11_0" arrivalPos="23.02" arrivalSpeed="21.73" duration="67.90" routeLength="771.82" waitingTime="0.00" waitingCount="0" stopTime="0.00" timeLoss="21.48" rerouteNo="0" devices="tripinfo_car_214" vType="DEFAULT_VEHTYPE" speedFactor="0.98" vaporized=""/>
    <tripinfo id="car_54" depart="27.00" departLane="1219699878#0_0" departPos="5.10" departSpeed="0.00" departDelay="0.00" arrival="176.00" arrivalLane="80926777#5_0" arrivalPos="44.07" arrivalSpeed="13.77" duration="149.00" routeLength="1455.50" waitingTime="44.00" waitingCount="1" stopTime="0.00" timeLoss="74.59" rerouteNo="0" devices="tripinfo_car_54" vType="DEFAULT_VEHTYPE" speedFactor="1.00" vaporized=""/>
    <tripinfo id="car_94" depart="47.00" departLane="-24584392#5_0" departPos="5.10" departSpeed="0.00" departDelay="0.00" arrival="176.40" arrivalLane="1219699876#5_0" arrivalPos="25.30" arrivalSpeed="20.43" duration="129.40" routeLength="1568.94" waitingTime="23.70" waitingCount="1" stopTime="0.00" timeLoss="50.64" rerouteNo="0" devices="tripinfo_car_94" vType="DEFAULT_VEHTYPE" speedFactor="0.92" vaporized=""/>
    <tripinfo id="car_57" depart="28.50" departLane="74851423#7_0" departPos="5.10" departSpeed="0.00" departDelay="0.00" arrival="176.70" arrivalLane="712992071#2_0" arrivalPos="60.25" arrivalSpeed="24.52" duration="148.20" routeLength="2211.47" waitingTime="7.30" waitingCount="1" stopTime="0.00" timeLoss="59.17" rerouteNo="0" devices="tripinfo_car_57" vType="DEFAULT_VEHTYPE" speedFactor="1.02" vaporized=""/>
    <tripinfo id="car_286" depart="143.00" departLane="488544864#3_0" departPos="5.10" departSpeed="0.00" departDelay="0.00" arrival="177.90" arrivalLane="993539970_0" arrivalPos="123.14" arrivalSpeed="13.68" duration="34.90" routeLength="334.11" waitingTime="0.00" waitingCount="0" stopTime="0.00" timeLoss="8.04" rerouteNo="0" devices="tripinfo_car_286" vType="DEFAULT_VEHTYPE" speedFactor="0.99" vaporized=""/>
    <tripinfo id="car_62" depart="31.00" departLane="-103176785#2_0" departPos="5.10" departSpeed="0.00" departDelay="0.00" arrival="178.00" arrivalLane="-993539971#3_0" arrivalPos="22.93" arrivalSpeed="11.91" duration="147.00" routeLength="1842.88" waitingTime="21.60" waitingCount="1" stopTime="0.00" timeLoss="60.54" rerouteNo="0" devices="tripinfo_car_62" vType="DEFAULT_VEHTYPE" speedFactor="0.99" vaporized=""/>
    <tripinfo id="car_80" depart="40.00" departLane="-1122274850_0" departPos="5.10" departSpeed="0.00" departDelay="0.00" arrival="179.20" arrivalLane="24583768#3_0" arrivalPos="46.93" arrivalSpeed="14.28" duration="139.20" routeLength="2067.92" waitingTime="5.00" waitingCount="1" stopTime="0.00" timeLoss="49.24" rerouteNo="0" devices="tripinfo_car_80" vType="DEFAULT_VEHTYPE" speedFactor="1.03" vaporized=""/>
    <tripinfo id="car_28" depart="14.00" departLane="-24583588_0" departPos="5.10" departSpeed="0.00" departDelay="0.00" arrival="179.80" arrivalLane="48964552#0_0" arrivalPos="306.36" arrivalSpeed="32.70" duration="165.80" routeLength="2764.05" waitingTime="5.40" waitingCount="1" stopTime="0.00" timeLoss="67.95" rerouteNo="0" devices="tripinfo_car_28" vType="DEFAULT_VEHTYPE" speedFactor="1.18" vaporized=""/>
    <tripinfo id="car_84" depart="42.00" departLane="-370672197#0_0" departPos="5.10" departSpeed="0.00" departDelay="0.00" arrival="180.50" arrivalLane="-24577414#0_0" arrivalPos="34.57" arrivalSpeed="12.46" duration="138.50" routeLength="2633.56" waitingTime="0.00" waitingCount="0" stopTime="0.00" timeLoss="35.84" rerouteNo="0" devices="tripinfo_car_84" vType="DEFAULT_VEHTYPE" speedFactor="1.15" vaporized=""/>
    <tripinfo id="car_1" depart="0.50" departLane="-695569947_0" departPos="5.10" departSpeed="0.00" departDelay="0.00" arrival="182.50" arrivalLane="-553588769#1_0" arrivalPos="48.36" arrivalSpeed="13.02" duration="182.00" routeLength="2987.66" waitingTime="0.00" waitingCount="0" stopTime="0.00" timeLoss="44.86" rerouteNo="0" devices="tripinfo_car_1" vType="DEFAULT_VEHTYPE" speedFactor="0.94" vaporized=""/>
</tripinfos>
