<?xml version="1.0" encoding="UTF-8"?>

<!-- generated on 2026-03-27T06:11:28.151036+05:30 by Eclipse SUMO GUI 1.26.0
<sumoConfiguration xmlns:xsi="http://www.w3.org/2001/XMLSchema-instance" xsi:noNamespaceSchemaLocation="http://sumo.dlr.de/xsd/sumoConfiguration.xsd">

    <input>
        <net-file value="osm.net.xml"/>
        <route-files value="routes_cars.rou.xml,routes_bikes.rou.xml,routes_buses.rou.xml,routes_ambulance.rou.xml,routes_firebrigade.rou.xml"/>
        <additional-files value="vtypes.add.xml"/>
    </input>

    <output>
        <summary-output value="summary.xml"/>
        <tripinfo-output value="tripinfo.xml"/>
    </output>

    <time>
        <begin value="0"/>
        <end value="3600"/>
        <step-length value="0.1"/>
    </time>

    <processing>
        <ignore-route-errors value="true"/>
        <collision.action value="warn"/>
        <time-to-teleport value="300"/>
    </processing>

    <gui_only>
        <gui-settings-file value="viewsettings.xml"/>
        <start value="true"/>
        <delay value="50"/>
    </gui_only>

</sumoConfiguration>
-->

<tripinfos xmlns:xsi="http://www.w3.org/2001/XMLSchema-instance" xsi:noNamespaceSchemaLocation="http://sumo.dlr.de/xsd/tripinfo_file.xsd">
    <tripinfo id="car_21" depart="10.50" departLane="-423559880#1_0" departPos="5.10" departSpeed="0.00" departDelay="0.00" arrival="51.60" arrivalLane="-717531847#3_0" arrivalPos="49.05" arrivalSpeed="12.31" duration="41.10" routeLength="414.11" waitingTime="0.00" waitingCount="0" stopTime="0.00" timeLoss="5.96" rerouteNo="0" devices="tripinfo_car_21" vType="DEFAULT_VEHTYPE" speedFactor="0.89" vaporized=""/>
    <tripinfo id="car_29" depart="14.50" departLane="-24583489#3_0" departPos="5.10" departSpeed="0.00" departDelay="0.00" arrival="66.10" arrivalLane="111695525#0_0" arrivalPos="92.54" arrivalSpeed="23.03" duration="51.60" routeLength="843.56" waitingTime="0.00" waitingCount="0" stopTime="0.00" timeLoss="18.88" rerouteNo="0" devices="tripinfo_car_29" vType="DEFAULT_VEHTYPE" speedFactor="1.15" vaporized=""/>
    <tripinfo id="car_52" depart="26.00" departLane="-686696454#2_0" departPos="5.10" departSpeed="0.00" departDelay="0.00" arrival="72.60" arrivalLane="24584377#6_1" arrivalPos="49.38" arrivalSpeed="8.85" duration="46.60" routeLength="615.47" waitingTime="0.00" waitingCount="0" stopTime="0.00" timeLoss="18.22" rerouteNo="0" devices="tripinfo_car_52" vType="DEFAULT_VEHTYPE" speedFactor="1.10" vaporized=""/>
    <tripinfo id="car_130" depart="65.00" departLane="712992080#6_0" departPos="5.10" departSpeed="0.00" departDelay="0.00" arrival="74.30" arrivalLane="712992080#7_0" arrivalPos="29.63" arrivalSpeed="18.50" duration="9.30" routeLength="88.44" waitingTime="0.00" waitingCount="0" stopTime="0.00" timeLoss="6.45" rerouteNo="0" devices="tripinfo_car_130" vType="DEFAULT_VEHTYPE" speedFactor="1.12" vaporized=""/>
    <tripinfo id="car_127" depart="63.50" departLane="998790358#9_0" departPos="5.10" departSpeed="0.00" departDelay="0.00" arrival="76.70" arrivalLane="998790358#17_0" arrivalPos="2.74" arrivalSpeed="25.07" duration="13.20" routeLength="166.47" waitingTime="0.00" waitingCount="0" stopTime="0.00" timeLoss="7.95" rerouteNo="0" devices="tripinfo_car_127" vType="DEFAULT_VEHTYPE" speedFactor="1.15" vaporized=""/>
    <tripinfo id="car_89" depart="44.50" departLane="1122228221_0" departPos="5.10" departSpeed="0.00" departDelay="0.00" arrival="95.30" arrivalLane="1287398725#4_1" arrivalPos="66.00" arrivalSpeed="14.13" duration="50.80" routeLength="550.92" waitingTime="0.00" waitingCount="0" stopTime="0.00" timeLoss="9.48" rerouteNo="0" devices="tripinfo_car_89" vType="DEFAULT_VEHTYPE" speedFactor="1.02" vaporized=""/>
    <tripinfo id="car_59" depart="29.50" departLane="24583335#2_0" departPos="5.10" departSpeed="0.00" departDelay="0.00" arrival="102.20" arrivalLane="-24583495#10_0" arrivalPos="4.96" arrivalSpeed="14.92" duration="72.70" routeLength="867.18" waitingTime="16.50" waitingCount="1" stopTime="0.00" timeLoss="41.18" rerouteNo="0" devices="tripinfo_car_59" vType="DEFAULT_VEHTYPE" speedFactor="1.08" vaporized=""/>
    <tripinfo id="car_83" depart="41.50" departLane="-553588769#0_0" departPos="5.10" departSpeed="0.00" departDelay="0.00" arrival="109.10" arrivalLane="291266017#3_0" arrivalPos="3.67" arrivalSpeed="8.31" duration="67.60" routeLength="667.66" waitingTime="0.20" waitingCount="1" stopTime="0.00" timeLoss="15.89" rerouteNo="0" devices="tripinfo_car_83" vType="DEFAULT_VEHTYPE" speedFactor="0.97" vaporized=""/>
    <tripinfo id="car_69" depart="34.50" departLane="563791813_0" departPos="5.10" departSpeed="0.00" departDelay="0.00" arrival="114.60" arrivalLane="-24577118#11_0" arrivalPos="23.09" arrivalSpeed="9.99" duration="80.10" routeLength="1154.36" waitingTime="0.00" waitingCount="0" stopTime="0.00" timeLoss="14.96" rerouteNo="0" devices="tripinfo_car_69" vType="DEFAULT_VEHTYPE" speedFactor="1.02" vaporized=""/>
    <tripinfo id="car_129" depart="64.50" departLane="-686685083_0" departPos="5.10" departSpeed="0.00" departDelay="0.00" arrival="116.50" arrivalLane="779077038#2_0" arrivalPos="109.11" arrivalSpeed="11.40" duration="52.00" routeLength="524.43" waitingTime="0.00" waitingCount="0" stopTime="0.00" timeLoss="10.16" rerouteNo="0" devices="tripinfo_car_129" vType="DEFAULT_VEHTYPE" speedFactor="0.82" vaporized=""/>
    <tripinfo id="car_18" depart="9.00" departLane="686673952#3_0" departPos="5.10" departSpeed="0.00" departDelay="0.00" arrival="117.10" arrivalLane="24583495#3_0" arrivalPos="18.22" arrivalSpeed="14.09" duration="108.10" routeLength="1593.17" waitingTime="1.50" waitingCount="1" stopTime="0.00" timeLoss="35.59" rerouteNo="0" devices="tripinfo_car_18" vType="DEFAULT_VEHTYPE" speedFactor="1.02" vaporized=""/>
    <tripinfo id="car_186" depart="93.00" departLane="553590482#1_0" departPos="5.10" departSpeed="0.00" departDelay="0.00" arrival="119.20" arrivalLane="291266017#9_0" arrivalPos="21.48" arrivalSpeed="12.31" duration="26.20" routeLength="212.44" waitingTime="0.00" waitingCount="0" stopTime="0.00" timeLoss="7.85" rerouteNo="0" devices="tripinfo_car_186" vType="DEFAULT_VEHTYPE" speedFactor="1.03" vaporized=""/>
    <tripinfo id="car_154" depart="77.00" departLane="596373338#8_0" departPos="5.10" departSpeed="0.00" departDelay="0.00" arrival="119.40" arrivalLane="709276133#3_0" arrivalPos="74.96" arrivalSpeed="29.74" duration="42.40" routeLength="729.54" waitingTime="0.00" waitingCount="0" stopTime="0.00" timeLoss="16.26" rerouteNo="0" devices="tripinfo_car_154" vType="DEFAULT_VEHTYPE" speedFactor="1.07" vaporized=""/>
    <tripinfo id="car_11" depart="5.50" departLane="-993539154#0_0" departPos="5.10" departSpeed="0.00" departDelay="0.00" arrival="125.50" arrivalLane="-24583584#2_0" arrivalPos="48.62" arrivalSpeed="15.47" duration="120.00" routeLength="1783.19" waitingTime="0.00" waitingCount="0" stopTime="0.00" timeLoss="30.31" rerouteNo="0" devices="tripinfo_car_11" vType="DEFAULT_VEHTYPE" speedFactor="1.12" vaporized=""/>
    <tripinfo id="car_68" depart="34.00" departLane="-1122231674_0" departPos="5.10" departSpeed="0.00" departDelay="0.00" arrival="128.40" arrivalLane="563791811#4_0" arrivalPos="45.41" arrivalSpeed="28.38" duration="94.40" routeLength="1485.77" waitingTime="0.00" waitingCount="0" stopTime="0.00" timeLoss="30.96" rerouteNo="0" devices="tripinfo_car_68" vType="DEFAULT_VEHTYPE" speedFactor="1.02" vaporized=""/>
    <tripinfo id="car_60" depart="30.00" departLane="563679836#5_0" departPos="5.10" departSpeed="0.00" departDelay="0.00" arrival="130.70" arrivalLane="24563446#0_0" arrivalPos="21.33" arrivalSpeed="15.87" duration="100.70" routeLength="2153.70" waitingTime="0.00" waitingCount="0" stopTime="0.00" timeLoss="29.20" rerouteNo="0" devices="tripinfo_car_60" vType="DEFAULT_VEHTYPE" speedFactor="1.12" vaporized=""/>
    <tripinfo id="car_212" depart="106.00" departLane="142865883#7_0" departPos="5.10" departSpeed="0.00" departDelay="0.00" arrival="133.10" arrivalLane="-633143618_0" arrivalPos="24.76" arrivalSpeed="13.46" duration="27.10" routeLength="256.16" waitingTime="0.00" waitingCount="0" stopTime="0.00" timeLoss="5.83" rerouteNo="0" devices="tripinfo_car_212" vType="DEFAULT_VEHTYPE" speedFactor="0.97" vaporized=""/>
    <tripinfo id="car_206" depart="103.00" departLane="291266017#3_0" departPos="3.67" departSpeed="0.00" departDelay="0.00" arrival="133.50" arrivalLane="-553590474#4_0" arrivalPos="36.77" arrivalSpeed="12.11" duration="30.50" routeLength="255.45" waitingTime="0.00" waitingCount="0" stopTime="0.00" timeLoss="6.11" rerouteNo="0" devices="tripinfo_car_206" vType="DEFAULT_VEHTYPE" speedFactor="0.87" vaporized=""/>
    <tripinfo id="car_55" depart="27.50" departLane="712992074#13_0" departPos="5.10" departSpeed="0.00" departDelay="0.00" arrival="134.10" arrivalLane="-699609064_0" arrivalPos="21.34" arrivalSpeed="10.52" duration="106.60" routeLength="1790.86" waitingTime="0.00" waitingCount="0" stopTime="0.00" timeLoss="19.17" rerouteNo="0" devices="tripinfo_car_55" vType="DEFAULT_VEHTYPE" speedFactor="0.90" vaporized=""/>
    <tripinfo id="car_35" depart="17.50" departLane="-370672194#10_0" departPos="5.10" departSpeed="0.00" departDelay="0.00" arrival="134.20" arrivalLane="80499762#9_0" arrivalPos="144.81" arrivalSpeed="28.44" duration="116.70" routeLength="2323.16" waitingTime="0.00" waitingCount="0" stopTime="0.00" timeLoss="32.55" rerouteNo="0" devices="tripinfo_car_35" vType="DEFAULT_VEHTYPE" speedFactor="1.18" vaporized=""/>
    <tripinfo id="car_27" depart="13.50" departLane="24584378#7_0" departPos="5.10" departSpeed="0.00" departDelay="0.00" arrival="135.80" arrivalLane="24583487#8_0" arrivalPos="1.07" arrivalSpeed="20.61" duration="122.30" routeLength="1891.62" waitingTime="0.00" waitingCount="0" stopTime="0.00" timeLoss="30.36" rerouteNo="0" devices="tripinfo_car_27" vType="DEFAULT_VEHTYPE" speedFactor="0.93" vaporized=""/>
    <tripinfo id="car_104" depart="52.00" departLane="1072967424_0" departPos="5.10" departSpeed="0.00" departDelay="0.00" arrival="136.50" arrivalLane="997761552#1_0" arrivalPos="71.16" arrivalSpeed="26.34" duration="84.50" routeLength="1111.72" waitingTime="1.70" waitingCount="1" stopTime="0.00" timeLoss="23.64" rerouteNo="0" devices="tripinfo_car_104" vType="DEFAULT_VEHTYPE" speedFactor="0.95" vaporized=""/>
    <tripinfo id="car_134" depart="67.00" departLane="24584385#2_0" departPos="5.10" departSpeed="0.00" departDelay="0.00" arrival="137.60" arrivalLane="-1060463406#1_0" arrivalPos="19.81" arrivalSpeed="12.75" duration="70.60" routeLength="1029.39" waitingTime="0.00" waitingCount="0" stopTime="0.00" timeLoss="20.79" rerouteNo="0" devices="tripinfo_car_134" vType="DEFAULT_VEHTYPE" speedFactor="0.96" vaporized=""/>
    <tripinfo id="car_9" depart="4.50" departLane="615556515#0_0" departPos="5.10" departSpeed="0.00" departDelay="0.00" arrival="137.80" arrivalLane="-1060463404#0_0" arrivalPos="30.11" arrivalSpeed="12.52" duration="133.30" routeLength="2137.12" waitingTime="0.00" waitingCount="0" stopTime="0.00" timeLoss="30.92" rerouteNo="0" devices="tripinfo_car_9" vType="DEFAULT_VEHTYPE" speedFactor="1.03" vaporized=""/>
    <tripinfo id="car_31" depart="15.50" departLane="24577108#2_0" departPos="5.10" departSpeed="0.00" departDelay="0.00" arrival="139.50" arrivalLane="370672194#14_0" arrivalPos="0.32" arrivalSpeed="16.17" duration="124.00" routeLength="1723.16" waitingTime="0.50" waitingCount="1" stopTime="0.00" timeLoss="40.14" rerouteNo="0" devices="tripinfo_car_31" vType="DEFAULT_VEHTYPE" speedFactor="1.17" vaporized=""/>
    <tripinfo id="car_34" depart="17.00" departLane="-750482273#6_0" departPos="5.10" departSpeed="0.00" departDelay="0.00" arrival="139.70" arrivalLane="-700293880#0_0" arrivalPos="55.76" arrivalSpeed="13.47" duration="122.70" routeLength="1705.82" waitingTime="0.00" waitingCount="0" stopTime="0.00" timeLoss="24.28" rerouteNo="0" devices="tripinfo_car_34" vType="DEFAULT_VEHTYPE" speedFactor="0.97" vaporized=""/>
    <tripinfo id="car_15" depart="7.50" departLane="612750030#1_0" departPos="5.10" departSpeed="0.00" departDelay="0.00" arrival="140.40" arrivalLane="48964552#3_0" arrivalPos="74.40" arrivalSpeed="26.13" duration="132.90" routeLength="2080.26" waitingTime="7.20" waitingCount="1" stopTime="0.00" timeLoss="49.06" rerouteNo="0" devices="tripinfo_car_15" vType="DEFAULT_VEHTYPE" speedFactor="0.94" vaporized=""/>
    <tripinfo id="car_204" depart="102.00" departLane="24583593#6_0" departPos="5.10" departSpeed="0.00" departDelay="0.00" arrival="143.50" arrivalLane="-998790358#7_1" arrivalPos="0.20" arrivalSpeed="22.98" duration="41.50" routeLength="450.00" waitingTime="0.00" waitingCount="0" stopTime="0.00" timeLoss="8.73" rerouteNo="0" devices="tripinfo_car_204" vType="DEFAULT_VEHTYPE" speedFactor="0.83" vaporized=""/>
    <tripinfo id="car_62" depart="31.00" departLane="-103176785#2_0" departPos="5.10" departSpeed="0.00" departDelay="0.00" arrival="149.70" arrivalLane="-993539971#3_0" arrivalPos="22.93" arrivalSpeed="12.51" duration="118.70" routeLength="1842.88" waitingTime="0.00" waitingCount="0" stopTime="0.00" timeLoss="32.22" rerouteNo="0" devices="tripinfo_car_62" vType="DEFAULT_VEHTYPE" speedFactor="0.99" vaporized=""/>
    <tripinfo id="car_171" depart="85.50" departLane="-1074774615#2_0" departPos="5.10" departSpeed="0.00" departDelay="0.00" arrival="152.20" arrivalLane="-311994765#1_0" arrivalPos="155.74" arrivalSpeed="13.58" duration="66.70" routeLength="779.14" waitingTime="0.00" waitingCount="0" stopTime="0.00" timeLoss="12.62" rerouteNo="0" devices="tripinfo_car_171" vType="DEFAULT_VEHTYPE" speedFactor="0.98" vaporized=""/>
    <tripinfo id="bike_26" depart="78.00" departLane="-24583487#3_0" departPos="5.10" departSpeed="0.00" departDelay="0.00" arrival="154.90" arrivalLane="74851428#5-AddedOffRampEdge_0" arrivalPos="93.49" arrivalSpeed="19.18" duration="76.90" routeLength="677.28" waitingTime="26.60" waitingCount="1" stopTime="0.00" timeLoss="49.17" rerouteNo="0" devices="tripinfo_bike_26" vType="DEFAULT_VEHTYPE" speedFactor="0.98" vaporized=""/>
    <tripinfo id="car_254" depart="127.00" departLane="-1122028503#1_0" departPos="5.10" departSpeed="0.00" departDelay="0.00" arrival="156.70" arrivalLane="111695524#7_0" arrivalPos="43.58" arrivalSpeed="13.18" duration="29.70" routeLength="331.39" waitingTime="0.00" waitingCount="0" stopTime="0.00" timeLoss="10.58" rerouteNo="0" devices="tripinfo_car_254" vType="DEFAULT_VEHTYPE" speedFactor="1.04" vaporized=""/>
    <tripinfo id="car_76" depart="38.00" departLane="116046167#2_0" departPos="5.10" departSpeed="0.00" departDelay="0.00" arrival="157.70" arrivalLane="164786644#2_0" arrivalPos="6.62" arrivalSpeed="14.30" duration="119.70" routeLength="2069.98" waitingTime="0.00" waitingCount="0" stopTime="0.00" timeLoss="35.56" rerouteNo="0" devices="tripinfo_car_76" vType="DEFAULT_VEHTYPE" speedFactor="1.03" vaporized=""/>
    <tripinfo id="car_190" depart="95.00" departLane="44263461#1_0" departPos="5.10" departSpeed="0.00" departDelay="0.00" arrival="159.70" arrivalLane="-773816586#1_0" arrivalPos="61.87" arrivalSpeed="12.71" duration="64.70" routeLength="820.46" waitingTime="0.00" waitingCount="0" stopTime="0.00" timeLoss="8.95" rerouteNo="0" devices="tripinfo_car_190" vType="DEFAULT_VEHTYPE" speedFactor="0.92" vaporized=""/>
    <tripinfo id="car_79" depart="39.50" departLane="-423618455#3_0" departPos="5.10" departSpeed="0.00" departDelay="0.00" arrival="161.10" arrivalLane="-44263461#6_0" arrivalPos="30.42" arrivalSpeed="14.59" duration="121.60" routeLength="1495.82" waitingTime="0.00" waitingCount="0" stopTime="0.00" timeLoss="23.66" rerouteNo="0" devices="tripinfo_car_79" vType="DEFAULT_VEHTYPE" speedFactor="1.09" vaporized=""/>
    <tripinfo id="car_67" depart="33.50" departLane="-1185908017_0" departPos="5.10" departSpeed="0.00" departDelay="0.00" arrival="164.10" arrivalLane="1393463455#2_0" arrivalPos="0.43" arrivalSpeed="17.15" duration="130.60" routeLength="2162.17" waitingTime="0.00" waitingCount="0" stopTime="0.00" timeLoss="29.74" rerouteNo="0" devices="tripinfo_car_67" vType="DEFAULT_VEHTYPE" speedFactor="1.04" vaporized=""/>
    <tripinfo id="car_141" depart="70.50" departLane="24583594#2_0" departPos="5.10" departSpeed="0.00" departDelay="0.00" arrival="165.40" arrivalLane="-700293874#2_0" arrivalPos="61.26" arrivalSpeed="13.23" duration="94.90" routeLength="1384.11" waitingTime="0.00" waitingCount="0" stopTime="0.00" timeLoss="19.85" rerouteNo="0" devices="tripinfo_car_141" vType="DEFAULT_VEHTYPE" speedFactor="0.95" vaporized=""/>
    <tripinfo id="car_73" depart="36.50" departLane="235103610#2_0" departPos="5.10" departSpeed="0.00" departDelay="0.00" arrival="165.80" arrivalLane="48964552#4_0" arrivalPos="145.60" arrivalSpeed="29.29" duration="129.30" routeLength="2626.93" waitingTime="0.00" waitingCount="0" stopTime="0.00" timeLoss="29.68" rerouteNo="0" devices="tripinfo_car_73" vType="DEFAULT_VEHTYPE" speedFactor="1.06" vaporized=""/>
    <tripinfo id="bike_1" depart="3.00" departLane="-24583590#5_0" departPos="5.10" departSpeed="0.00" departDelay="0.00" arrival="166.40" arrivalLane="-24583487#8_1" arrivalPos="1.07" arrivalSpeed="20.95" duration="163.40" routeLength="2416.45" waitingTime="19.60" waitingCount="1" stopTime="0.00" timeLoss="59.03" rerouteNo="0" devices="tripinfo_bike_1" vType="DEFAULT_VEHTYPE" speedFactor="1.01" vaporized=""/>
    <tripinfo id="car_70" depart="35.00" departLane="1306148229#4_0" departPos="5.10" departSpeed="0.00" departDelay="0.00" arrival="167.80" arrivalLane="24577106#0_1" arrivalPos="26.32" arrivalSpeed="10.97" duration="132.80" routeLength="2326.44" waitingTime="0.00" waitingCount="0" stopTime="0.00" timeLoss="40.80" rerouteNo="0" devices="tripinfo_car_70" vType="DEFAULT_VEHTYPE" speedFactor="0.97" vaporized=""/>
    <tripinfo id="car_28" depart="14.00" departLane="-24583588_0" departPos="5.10" departSpeed="0.00" departDelay="0.00" arrival="170.40" arrivalLane="48964552#0_0" arrivalPos="306.36" arrivalSpeed="32.68" duration="156.40" routeLength="2764.05" waitingTime="0.00" waitingCount="0" stopTime="0.00" timeLoss="58.59" rerouteNo="0" devices="tripinfo_car_28" vType="DEFAULT_VEHTYPE" speedFactor="1.18" vaporized=""/>
    <tripinfo id="car_48" depart="24.00" departLane="998790358#17_0" departPos="2.74" departSpeed="0.00" departDelay="0.00" arrival="170.50" arrivalLane="23134680#0_0" arrivalPos="154.32" arrivalSpeed="23.70" duration="146.50" routeLength="2863.03" waitingTime="0.00" waitingCount="0" stopTime="0.00" timeLoss="21.92" rerouteNo="0" devices="tripinfo_car_48" vType="DEFAULT_VEHTYPE" speedFactor="0.85" vaporized=""/>
    <tripinfo id="car_24" depart="12.00" departLane="24583768#0_0" departPos="5.10" departSpeed="0.00" departDelay="0.00" arrival="171.60" arrivalLane="1074764284#0_0" arrivalPos="438.48" arrivalSpeed="12.68" duration="159.60" routeLength="2429.78" waitingTime="0.00" waitingCount="0" stopTime="0.00" timeLoss="27.23" rerouteNo="0" devices="tripinfo_car_24" vType="DEFAULT_VEHTYPE" speedFactor="0.92" vaporized=""/>
    <tripinfo id="car_41" depart="20.50" departLane="24577486#0_0" departPos="5.10" departSpeed="0.00" departDelay="0.00" arrival="172.10" arrivalLane="717907807#6_0" arrivalPos="22.36" arrivalSpeed="28.79" duration="151.60" routeLength="2773.34" waitingTime="5.20" waitingCount="1" stopTime="0.00" timeLoss="46.24" rerouteNo="0" devices="tripinfo_car_41" vType="DEFAULT_VEHTYPE" speedFactor="1.04" vaporized=""/>
    <tripinfo id="car_214" depart="107.00" departLane="562499724#3_0" departPos="5.10" departSpeed="0.00" departDelay="0.00" arrival="175.10" arrivalLane="570616026#11_0" arrivalPos="23.02" arrivalSpeed="21.47" duration="68.10" routeLength="771.82" waitingTime="0.00" waitingCount="0" stopTime="0.00" timeLoss="21.70" rerouteNo="0" devices="tripinfo_car_214" vType="DEFAULT_VEHTYPE" speedFactor="0.98" vaporized=""/>
    <tripinfo id="car_17" depart="8.50" departLane="1072967423#0_0" departPos="5.10" departSpeed="0.00" departDelay="0.00" arrival="176.00" arrivalLane="24577108#2_0" arrivalPos="25.02" arrivalSpeed="15.99" duration="167.50" routeLength="2696.42" waitingTime="0.00" waitingCount="0" stopTime="0.00" timeLoss="60.98" rerouteNo="0" devices="tripinfo_car_17" vType="DEFAULT_VEHTYPE" speedFactor="1.16" vaporized=""/>
    <tripinfo id="car_57" depart="28.50" departLane="74851423#7_0" departPos="5.10" departSpeed="0.00" departDelay="0.00" arrival="176.30" arrivalLane="712992071#2_0" arrivalPos="60.25" arrivalSpeed="24.99" duration="147.80" routeLength="2211.47" waitingTime="6.80" waitingCount="2" stopTime="0.00" timeLoss="58.76" rerouteNo="0" devices="tripinfo_car_57" vType="DEFAULT_VEHTYPE" speedFactor="1.02" vaporized=""/>
    <tripinfo id="car_286" depart="143.00" departLane="488544864#3_0" departPos="5.10" departSpeed="0.00" departDelay="0.00" arrival="177.80" arrivalLane="993539970_0" arrivalPos="123.14" arrivalSpeed="13.69" duration="34.80" routeLength="334.11" waitingTime="0.00" waitingCount="0" stopTime="0.00" timeLoss="8.04" rerouteNo="0" devices="tripinfo_car_286" vType="DEFAULT_VEHTYPE" speedFactor="0.99" vaporized=""/>
    <tripinfo id="car_84" depart="42.00" departLane="-370672197#0_0" departPos="5.10" departSpeed="0.00" departDelay="0.00" arrival="180.50" arrivalLane="-24577414#0_0" arrivalPos="34.57" arrivalSpeed="12.23" duration="138.50" routeLength="2633.56" waitingTime="0.00" waitingCount="0" stopTime="0.00" timeLoss="35.82" rerouteNo="0" devices="tripinfo_car_84" vType="DEFAULT_VEHTYPE" speedFactor="1.15" vaporized=""/>
    <tripinfo id="car_54" depart="27.00" departLane="1219699878#0_0" departPos="5.10" departSpeed="0.00" departDelay="0.00" arrival="181.10" arrivalLane="80926777#5_0" arrivalPos="44.07" arrivalSpeed="13.71" duration="154.10" routeLength="1455.50" waitingTime="49.40" waitingCount="2" stopTime="0.00" timeLoss="79.63" rerouteNo="0" devices="tripinfo_car_54" vType="DEFAULT_VEHTYPE" speedFactor="1.00" vaporized=""/>
    <tripinfo id="car_1" depart="0.50" departLane="-695569947_0" departPos="5.10" departSpeed="0.00" departDelay="0.00" arrival="182.10" arrivalLane="-553588769#1_0" arrivalPos="48.36" arrivalSpeed="12.98" duration="181.60" routeLength="2987.66" waitingTime="0.00" waitingCount="0" stopTime="0.00" timeLoss="44.59" rerouteNo="0" devices="tripinfo_car_1" vType="DEFAULT_VEHTYPE" speedFactor="0.94" vaporized=""/>
    <tripinfo id="car_108" depart="54.00" departLane="24577106#4_0" departPos="1.06" departSpeed="0.00" departDelay="0.00" arrival="185.20" arrivalLane="44277690#5_0" arrivalPos="111.25" arrivalSpeed="20.45" duration="131.20" routeLength="2189.51" waitingTime="0.00" waitingCount="0" stopTime="0.00" timeLoss="46.87" rerouteNo="0" devices="tripinfo_car_108" vType="DEFAULT_VEHTYPE" speedFactor="1.03" vaporized=""/>
    <tripinfo id="car_112" depart="56.00" departLane="-1122038572#1_0" departPos="5.10" departSpeed="0.00" departDelay="0.00" arrival="186.00" arrivalLane="24582917#1_0" arrivalPos="68.40" arrivalSpeed="11.99" duration="130.00" routeLength="1985.16" waitingTime="9.90" waitingCount="1" stopTime="0.00" timeLoss="33.62" rerouteNo="0" devices="tripinfo_car_112" vType="DEFAULT_VEHTYPE" speedFactor="0.87" vaporized=""/>
    <tripinfo id="car_111" depart="55.50" departLane="24563436#3_0" departPos="5.10" departSpeed="0.00" departDelay="0.00" arrival="186.30" arrivalLane="562499724#9_0" arrivalPos="33.80" arrivalSpeed="12.78" duration="130.80" routeLength="1753.25" waitingTime="10.40" waitingCount="2" stopTime="0.00" timeLoss="42.84" rerouteNo="0" devices="tripinfo_car_111" vType="DEFAULT_VEHTYPE" speedFactor="0.93" vaporized=""/>
    <tripinfo id="car_10" depart="5.00" departLane="612734124#1_0" departPos="5.10" departSpeed="0.00" departDelay="0.00" arrival="187.20" arrivalLane="371342951#1_0" arrivalPos="11.27" arrivalSpeed="13.73" duration="182.20" routeLength="2596.16" waitingTime="22.70" waitingCount="1" stopTime="0.00" timeLoss="64.47" rerouteNo="0" devices="tripinfo_car_10" vType="DEFAULT_VEHTYPE" speedFactor="1.05" vaporized=""/>
    <tripinfo id="car_158" depart="79.00" departLane="1121191979#2_0" departPos="5.10" departSpeed="0.00" departDelay="0.00" arrival="188.60" arrivalLane="24583584#2_0" arrivalPos="48.62" arrivalSpeed="16.04" duration="109.60" routeLength="1716.36" waitingTime="3.30" waitingCount="1" stopTime="0.00" timeLoss="45.36" rerouteNo="0" devices="tripinfo_car_158" vType="DEFAULT_VEHTYPE" speedFactor="1.18" vaporized=""/>
    <tripinfo id="car_14" depart="7.00" departLane="700293877#1_0" departPos="5.10" departSpeed="0.00" departDelay="0.00" arrival="189.60" arrivalLane="24583335#4_0" arrivalPos="41.57" arrivalSpeed="24.39" duration="182.60" routeLength="2674.34" waitingTime="1.90" waitingCount="1" stopTime="0.00" timeLoss="34.23" rerouteNo="0" devices="tripinfo_car_14" vType="DEFAULT_VEHTYPE" speedFactor="0.88" vaporized=""/>
    <tripinfo id="bike_19" depart="57.00" departLane="612750032#2_0" departPos="2.63" departSpeed="0.00" departDelay="0.00" arrival="189.60" arrivalLane="116046169#2_0" arrivalPos="50.36" arrivalSpeed="32.92" duration="132.60" routeLength="2165.59" waitingTime="9.40" waitingCount="1" stopTime="0.00" timeLoss="63.57" rerouteNo="0" devices="tripinfo_bike_19" vType="DEFAULT_VEHTYPE" speedFactor="1.19" vaporized=""/>
    <tripinfo id="car_7" depart="3.50" departLane="24584380#4_0" departPos="5.10" departSpeed="0.00" departDelay="0.00" arrival="195.00" arrivalLane="24577096#13_0" arrivalPos="74.78" arrivalSpeed="23.79" duration="191.50" routeLength="2858.36" waitingTime="0.30" waitingCount="1" stopTime="0.00" timeLoss="48.30" rerouteNo="0" devices="tripinfo_car_7" vType="DEFAULT_VEHTYPE" speedFactor="0.86" vaporized=""/>
    <tripinfo id="car_37" depart="18.50" departLane="24584391#2_0" departPos="5.10" departSpeed="0.00" departDelay="0.00" arrival="195.10" arrivalLane="1122026496#1_0" arrivalPos="52.41" arrivalSpeed="12.39" duration="176.60" routeLength="1607.69" waitingTime="23.00" waitingCount="4" stopTime="0.00" timeLoss="69.06" rerouteNo="0" devices="tripinfo_car_37" vType="DEFAULT_VEHTYPE" speedFactor="0.90" vaporized=""/>
    <tripinfo id="car_99" depart="49.50" departLane="998790361_0" departPos="5.10" departSpeed="0.00" departDelay="0.00" arrival="196.50" arrivalLane="686814926#1_0" arrivalPos="54.13" arrivalSpeed="15.49" duration="147.00" routeLength="2139.40" waitingTime="10.70" waitingCount="1" stopTime="0.00" timeLoss="59.67" rerouteNo="0" devices="tripinfo_car_99" vType="DEFAULT_VEHTYPE" speedFactor="1.12" vaporized=""/>
    <tripinfo id="car_144" depart="72.00" departLane="1122228221_0" departPos="5.10" departSpeed="0.00" departDelay="0.00" arrival="198.70" arrivalLane="-712992080#5_0" arrivalPos="46.36" arrivalSpeed="25.90" duration="126.70" routeLength="2320.75" waitingTime="0.00" waitingCount="0" stopTime="0.00" timeLoss="31.64" rerouteNo="0" devices="tripinfo_car_144" vType="DEFAULT_VEHTYPE" speedFactor="0.94" vaporized=""/>
    <tripinfo id="car_88" depart="44.00" departLane="-1277942000#5_0" departPos="5.10" departSpeed="0.00" departDelay="0.00" arrival="199.00" arrivalLane="116046165#1_0" arrivalPos="269.22" arrivalSpeed="13.93" duration="155.00" routeLength="2890.15" waitingTime="0.00" waitingCount="0" stopTime="0.00" timeLoss="34.24" rerouteNo="0" devices="tripinfo_car_88" vType="DEFAULT_VEHTYPE" speedFactor="1.01" vaporized=""/>
    <tripinfo id="car_42" depart="21.00" departLane="1121139429#0_0" departPos="5.10" departSpeed="0.00" departDelay="0.00" arrival="200.70" arrivalLane="-44263461#2_0" arrivalPos="1.43" arrivalSpeed="14.46" duration="179.70" routeLength="2702.92" waitingTime="0.00" waitingCount="0" stopTime="0.00" timeLoss="45.91" rerouteNo="0" devices="tripinfo_car_42" vType="DEFAULT_VEHTYPE" speedFactor="1.04" vaporized=""/>
    <tripinfo id="car_139" depart="69.50" departLane="-686792709#1_0" departPos="5.10" departSpeed="0.00" departDelay="0.00" arrival="200.90" arrivalLane="24583339#2_0" arrivalPos="3.89" arrivalSpeed="20.11" duration="131.40" routeLength="2193.04" waitingTime="0.00" waitingCount="0" stopTime="0.00" timeLoss="36.65" rerouteNo="0" devices="tripinfo_car_139" vType="DEFAULT_VEHTYPE" speedFactor="1.02" vaporized=""/>
    <tripinfo id="car_126" depart="63.00" departLane="-1137810751_0" departPos="5.10" departSpeed="0.00" departDelay="0.00" arrival="201.30" arrivalLane="1277941998#1_0" arrivalPos="12.22" arrivalSpeed="17.99" duration="138.30" routeLength="725.78" waitingTime="4.50" waitingCount="1" stopTime="0.00" timeLoss="14.36" rerouteNo="0" devices="tripinfo_car_126" vType="DEFAULT_VEHTYPE" speedFactor="1.06" vaporized=""/>
    <tripinfo id="car_30" depart="15.00" departLane="998790354#2_0" departPos="0.20" departSpeed="0.00" departDelay="0.00" arrival="206.00" arrivalLane="24584377#2_0" arrivalPos="23.10" arrivalSpeed="22.29" duration="191.00" routeLength="3296.96" waitingTime="2.70" waitingCount="1" stopTime="0.00" timeLoss="56.56" rerouteNo="0" devices="tripinfo_car_30" vType="DEFAULT_VEHTYPE" speedFactor="1.01" vaporized=""/>
    <tripinfo id="car_133" depart="66.50" departLane="24583487#0_0" departPos="5.10" departSpeed="0.00" departDelay="0.00" arrival="206.40" arrivalLane="998790352#3_0" arrivalPos="1.16" arrivalSpeed="19.79" duration="139.90" routeLength="2233.77" waitingTime="0.00" waitingCount="0" stopTime="0.00" timeLoss="57.42" rerouteNo="0" devices="tripinfo_car_133" vType="DEFAULT_VEHTYPE" speedFactor="1.07" vaporized=""/>
    <tripinfo id="car_38" depart="19.00" departLane="74851428#4_0" departPos="5.10" departSpeed="0.00" departDelay="0.00" arrival="207.60" arrivalLane="1277942000#0_0" arrivalPos="35.51" arrivalSpeed="13.73" duration="188.60" routeLength="1755.73" waitingTime="68.90" waitingCount="1" stopTime="0.00" timeLoss="106.16" rerouteNo="0" devices="tripinfo_car_38" vType="DEFAULT_VEHTYPE" speedFactor="1.03" vaporized=""/>